46
BDOF_2_mod.log	Energy: -1227286.8743111
C          2.06961        1.51280       -0.02009
C          0.70987        1.76290       -0.02838
C          2.50265        0.19237        0.02156
C         -1.89247       -4.95730        0.07988
O         -0.52599       -5.10786        0.05009
C         -0.03261       -3.82564       -0.06049
C         -1.15396       -2.82023        0.03199
C         -2.35782       -3.64131        0.07403
C         -3.72002       -3.42899        0.03097
C         -4.53679       -4.54406       -0.01637
C         -4.05728       -5.84749        0.02972
C         -2.70461       -6.07936        0.05286
O         -5.89435       -4.41416       -0.24756
C         -6.26395       -5.69070       -0.61459
C         -5.24197       -6.64885       -0.09483
C         -0.99334       -1.47560        0.04902
O         -7.21272       -5.93982       -1.33589
C         -5.48596       -7.92337        0.24721
C          0.24531       -0.64367        0.02241
C         -0.16766        0.69292       -0.00833
N         -1.54531        0.78345        0.01521
C         -2.13488       -0.45744        0.08047
C          1.60911       -0.88027        0.05835
C         -6.78015       -8.62539        0.23104
C         -6.50394       -9.96891        0.48219
N         -5.14957      -10.14728        0.74910
C         -4.46128       -8.94390        0.70572
C         -8.09658       -8.21424        0.11694
O         -3.32999       -0.61505        0.15925
O         -3.29444       -8.78727        0.99312
O          1.15136       -3.63110       -0.25008
H         -4.72307      -11.02199        1.02753
H         -2.07422        1.64518        0.02476
F        -10.36888       -8.78473       -0.05052
F         -7.21241      -12.20917        0.74061
F          0.25317        3.02175       -0.04188
F          3.81644       -0.06645        0.03770
H         -8.39647       -7.17827        0.03739
H         -4.20190       -2.46849       -0.02893
H         -2.26140       -7.06383       -0.00848
H          2.06103       -1.85541        0.12673
C         -9.09980       -9.17866        0.11521
C         -7.50091      -10.92507        0.50576
C         -8.81565      -10.53082        0.29140
H         -9.62026      -11.25489        0.28477
H          2.78849        2.32203       -0.03354
