50
bdon-opt.log	Energy: -1047694.0029439
C         -8.14167       -0.72645        0.00006
C         -7.38978       -1.89735        0.00009
N         -7.60260        0.50889        0.00004
C         -0.55974       -1.21405        0.00004
C         -1.41824       -0.09237       -0.00001
C         -0.81917        1.18229       -0.00013
C          0.55973        1.21403       -0.00018
C          1.41824        0.09236       -0.00012
C          0.81916       -1.18230       -0.00001
O         -1.25697       -2.40378        0.00012
C         -2.60112       -2.11962        0.00012
C         -2.78469       -0.61790        0.00003
O          1.25696        2.40377       -0.00029
C          2.60111        2.11961       -0.00030
C          2.78469        0.61789       -0.00015
O          3.40447        3.01776       -0.00043
O         -3.40448       -3.01777        0.00016
C          4.02603        0.01993       -0.00007
C         -4.02604       -0.01993        0.00004
C         -5.38761       -0.56631        0.00006
C         -6.28237        0.54157        0.00004
N         -5.57699        1.73546        0.00001
C         -4.21736        1.49553        0.00002
C          5.38761        0.56632        0.00009
C          6.28238       -0.54156        0.00006
N          5.57700       -1.73546       -0.00011
C          4.21737       -1.49554       -0.00020
C         -5.99120       -1.82888        0.00009
C          5.99119        1.82889        0.00036
C          6.17627       -3.05731       -0.00025
C         -6.17624        3.05732        0.00001
O         -3.37597        2.38078        0.00005
O          3.37599       -2.38079       -0.00036
H         -1.40204        2.08910       -0.00016
H          1.40203       -2.08911        0.00003
H         -5.39398       -2.72689        0.00011
H          5.39397        2.72689        0.00039
H          7.88687        2.86190        0.00073
H         -7.88689       -2.86188        0.00012
H          6.80025       -3.19056       -0.88875
H          6.80082       -3.19044        0.88787
H          5.36331       -3.78389        0.00005
H         -6.80084        3.19035       -0.88809
H         -6.80019        3.19069        0.88852
H         -5.36328        3.78390       -0.00040
N          7.60260       -0.50887        0.00021
C          7.38977        1.89736        0.00053
C          8.14166        0.72647        0.00044
H          9.22892        0.76489        0.00055
H         -9.22892       -0.76487        0.00006
