12
BFFFF.log	Energy: -394805.9867492
C          0.00021        1.40324        0.00001
C         -1.19692        0.69705        0.00013
C          1.19711        0.69703       -0.00008
F         -2.36728        1.35346        0.00009
F          2.36728       -1.35346       -0.00017
F          2.36771        1.35311       -0.00028
F         -2.36771       -1.35311        0.00016
C         -1.19711       -0.69703        0.00014
C          1.19692       -0.69705        0.00000
C         -0.00021       -1.40324        0.00010
H          0.00008       -2.48695        0.00007
H         -0.00008        2.48695       -0.00009
