19
BPDF.log	Energy: -408910.9418670
C          1.13042        1.71472        0.00010
C          0.05675        0.83416       -0.00006
C          2.41914        1.17152        0.00016
C         -1.41020        1.10133       -0.00045
N         -2.02389       -0.16527       -0.00009
C         -1.09151       -1.20969        0.00016
C         -3.46086       -0.37166        0.00001
O         -1.36097       -2.39378       -0.00007
O         -1.99400        2.16613       -0.00003
F          3.83745       -0.70658        0.00017
H          3.30170        1.80246        0.00023
H         -3.76574       -0.93228       -0.88849
H         -3.76589       -0.93081        0.88939
H         -3.93294        0.61191       -0.00083
C          2.58556       -0.21502        0.00007
C          0.25105       -0.54864       -0.00004
C          1.51627       -1.11299       -0.00003
H          1.68053       -2.18498        0.00000
H          0.97258        2.78858        0.00007
