20
dppcc-opt.log	Energy: -357434.6026648
C          1.05232       -1.37370       -0.00018
C         -0.14057       -0.70639       -0.00029
N          2.08683       -0.46414       -0.00001
C         -1.58778       -0.88938       -0.00002
C          1.58870        0.89208       -0.00036
O          2.31275        1.87381        0.00001
O         -2.32226       -1.86332       -0.00003
C         -3.50475        0.75103        0.00032
C          3.50517       -0.76579        0.00043
H         -3.98131        0.32072       -0.88604
H          3.79015       -1.33303        0.89358
H         -3.98087        0.32080        0.88695
H         -3.65192        1.83325        0.00030
H          3.79069       -1.33301       -0.89256
H          4.03094        0.19117        0.00059
N         -2.08257        0.46360       -0.00002
C          0.14379        0.70538       -0.00032
C         -1.04919        1.37350        0.00002
H         -1.25562        2.43698        0.00010
H          1.25810       -2.43739       -0.00010
