19
dpt-opt.log	Energy: -751924.7619002
C         -3.17592       -0.25642        0.00036
S         -2.09342       -1.63899        0.00019
C         -2.52601        0.94796       -0.00020
C         -1.11329        0.76392       -0.00051
C         -0.71166       -0.57984       -0.00030
N          0.00513        1.58326       -0.00097
C          1.11492        0.75527       -0.00059
C          0.70397       -0.58532       -0.00040
C          0.02700        3.03168        0.00087
H          0.53280        3.41714        0.89421
H          0.53783        3.41900       -0.88875
H         -0.99899        3.40413       -0.00172
H          3.04425        1.88653       -0.00027
H         -3.04047        1.90232       -0.00031
C          2.52809        0.93315       -0.00019
S          2.07987       -1.65120        0.00014
C          3.17142       -0.27505        0.00044
H          4.23811       -0.45353        0.00082
H         -4.24381       -0.42754        0.00071
