29
fl-opt.log	Energy: -363987.6468703
C         -3.46013       -0.32826       -0.00014
C         -3.01535       -1.65442       -0.00002
C         -2.54257        0.72920       -0.00015
C         -0.73443       -0.89049        0.00002
C         -1.64926       -1.94537        0.00005
C         -1.18122        0.44605       -0.00006
C         -0.00001        1.41629       -0.00002
C          1.18122        0.44606       -0.00012
C          0.73444       -0.89049       -0.00003
C          1.64927       -1.94537        0.00003
C          0.00005        2.30339        1.26544
C         -0.00008        2.30406       -1.26487
H         -0.00005        1.69456       -2.17415
H         -0.88615        2.94923       -1.28521
H          0.88592        2.94933       -1.28524
H         -0.88605        2.94848        1.28623
H          0.00021        1.69329        2.17431
H          0.88606        2.94863        1.28601
H         -1.30892       -2.97791        0.00017
H         -3.73889       -2.46544        0.00000
H         -2.89873        1.75695       -0.00023
H          1.30893       -2.97790        0.00016
H          2.89873        1.75696       -0.00023
H          3.73890       -2.46543       -0.00001
C          2.54258        0.72920       -0.00018
C          3.01536       -1.65441       -0.00003
C          3.46014       -0.32825       -0.00014
H          4.52619       -0.11692       -0.00022
H         -4.52619       -0.11694       -0.00021
