40
idt-opt.log	Energy: -984780.8556016
C          5.19649       -0.92087        0.00017
C          4.80697        0.39483        0.00012
S          3.83611       -2.02009       -0.00028
C         -1.06560       -0.90269       -0.00004
C         -1.29262        0.49799        0.00005
C         -0.22778        1.40858        0.00007
C          1.06560        0.90269        0.00001
C          1.29262       -0.49799       -0.00005
C          0.22778       -1.40858       -0.00009
C         -2.39247       -1.67721       -0.00005
C         -3.39128       -0.52920        0.00001
C         -2.73371        0.68097        0.00005
C          2.39247        1.67721       -0.00004
C          3.39128        0.52920       -0.00006
C          2.73371       -0.68097       -0.00011
C         -2.53260       -2.55147       -1.26622
C         -2.53257       -2.55148        1.26614
C          2.53255        2.55152       -1.26619
C          2.53262        2.55143        1.26617
H         -5.51387       -1.21807        0.00011
H          5.51387        1.21807        0.00024
H         -0.41410        2.48012        0.00011
H          0.41410       -2.48012       -0.00015
H         -2.43190       -1.94836       -2.17399
H         -3.51226       -3.04329       -1.28790
H         -1.76381       -3.33257       -1.28616
H         -2.43185       -1.94838        2.17390
H         -1.76377       -3.33258        1.28604
H         -3.51222       -3.04331        1.28784
H          2.43181        1.94845       -2.17397
H          3.51221        3.04335       -1.28789
H          1.76376        3.33263       -1.28606
H          2.43194        1.94828        2.17391
H          1.76382        3.33252        1.28614
H          3.51228        3.04325        1.28785
S         -3.83611        2.02009        0.00016
C         -4.80697       -0.39483        0.00012
C         -5.19649        0.92087        0.00016
H         -6.20200        1.32007        0.00019
H          6.20200       -1.32007        0.00030
