46
idtt-opt.log	Energy: -1580163.5991748
C         -7.25984        0.28170       -0.00039
C         -6.54486        1.44762       -0.00026
S         -6.24461       -1.14640       -0.00028
C          1.10184        0.85768        0.00040
C          1.27062       -0.55193        0.00037
C          0.16811       -1.41779        0.00025
C         -1.10183       -0.85769        0.00022
C         -1.27062        0.55195        0.00049
C         -0.16811        1.41779        0.00056
C         -2.45929       -1.57573       -0.00004
C         -3.40505       -0.38648        0.00039
C         -2.70019        0.79762        0.00054
C          2.45931        1.57574        0.00011
C          3.40504        0.38646        0.00024
C          2.70019       -0.79763        0.00036
C          4.80439        0.15878        0.00002
C          5.14382       -1.19690        0.00010
S          3.71617       -2.22240        0.00049
C         -4.80439       -0.15878        0.00021
C         -5.14382        1.19692        0.00013
S         -3.71615        2.22240        0.00011
C          2.63918        2.44070       -1.26781
C          2.63947        2.44127        1.26754
C         -2.63929       -2.44030       -1.26824
C         -2.63935       -2.44169        1.26710
H         -0.30897        2.49612        0.00095
H          0.30901       -2.49612        0.00040
H         -7.00080        2.43100       -0.00016
H          7.00079       -2.43098       -0.00029
H         -1.90916       -3.25740       -1.28507
H         -3.64168       -2.88341       -1.29448
H         -2.50564       -1.84157       -2.17448
H         -2.50609       -1.84397        2.17408
H         -3.64161       -2.88515        1.29271
H         -1.90904       -3.25866        1.28332
H          1.90880        3.25758       -1.28451
H          3.64143        2.88414       -1.29381
H          2.50582        1.84220       -2.17424
H          1.90924        3.25830        1.28402
H          2.50615        1.84327        2.17432
H          3.64178        2.88462        1.29329
S          6.24458        1.14640       -0.00052
C          6.54485       -1.44760       -0.00028
C          7.25983       -0.28168       -0.00061
H          8.33528       -0.16552       -0.00082
H         -8.33530        0.16553       -0.00055
