32
ndi-opt.log	Energy: -643966.5496344
C          0.70391        2.42877       -0.00002
C          1.40701        1.23443       -0.00007
C         -0.70390        2.42877       -0.00001
C          0.71048        0.00183       -0.00011
C         -0.71048        0.00183       -0.00011
C          1.40559       -1.23145       -0.00012
C         -1.40701        1.23443       -0.00009
C         -2.89509        1.25333       -0.00014
N         -3.53712        0.00312       -0.00011
C         -2.89192       -1.24221       -0.00007
C          2.89191       -1.24221       -0.00015
N          3.53712        0.00313       -0.00002
C          2.89509        1.25331       -0.00007
O          3.54409       -2.27557        0.00020
O          3.53018        2.29704        0.00007
O         -3.53018        2.29704        0.00021
O         -3.54410       -2.27557        0.00025
C         -5.00515       -0.03028        0.00009
C          5.00516       -0.03028        0.00016
H         -5.36179       -0.56165       -0.88535
H         -5.36168       -0.56012        0.88649
H         -5.36032        0.99746       -0.00073
H          5.36163       -0.56072        0.88623
H          5.36183       -0.56106       -0.88561
H          5.36032        0.99746        0.00002
H         -1.26058        3.35976        0.00003
H          1.26164       -3.35696       -0.00008
C          0.70398       -2.42643       -0.00009
C         -1.40559       -1.23145       -0.00011
C         -0.70398       -2.42643       -0.00008
H         -1.26164       -3.35696       -0.00005
H          1.26059        3.35976        0.00003
