9
TFF.log	Energy: -471543.8882751
C          0.00000        1.25337        0.63731
C          0.00000        0.71441       -0.61254
S          0.00000       -0.00000        1.84160
F          0.00000       -1.41308       -1.75456
F          0.00000        1.41308       -1.75456
C         -0.00000       -0.71441       -0.61254
C         -0.00000       -1.25337        0.63731
H          0.00000       -2.29844        0.90965
H          0.00000        2.29844        0.90965
