13
to-opt.log	Energy: -418874.8339813
C          0.52823       -1.13800       -0.00006
C         -0.52890       -0.26238        0.00003
S          2.04279       -0.29546        0.00001
O         -1.81239       -0.72460        0.00010
C         -2.84866        0.24417       -0.00008
H         -0.79088        1.95779        0.00015
H         -2.80945        0.87986        0.89495
H         -2.80930        0.87969       -0.89523
H         -3.78544       -0.31642       -0.00009
C         -0.11441        1.11208        0.00008
C          1.24713        1.24168       -0.00006
H          1.82601        2.15514       -0.00010
H          0.48308       -2.21720       -0.00011
