16
	Energy: -547895.9557221
C         -1.69696        1.25862        0.00002
C         -0.45023        0.71069       -0.00004
S         -2.89767       -0.00548        0.00007
O          1.42693       -2.30149        0.00020
C          0.95874        1.18544       -0.00017
O          1.40570        2.31382        0.00020
C          3.18303       -0.00208        0.00030
H          3.56244       -0.51587       -0.88789
H          3.56114       -0.51538        0.88933
H          3.51520        1.03699        0.00017
N          1.73119        0.00367       -0.00077
C          0.96520       -1.17903       -0.00017
C         -0.44748       -0.71367       -0.00003
C         -1.69221       -1.26570       -0.00001
H         -1.98395       -2.30714        0.00006
H         -1.99188        2.29917        0.00004
