36
ttig-opt.log	Energy: -1596783.4503940
C         -0.71483        6.51314        0.00031
S          0.89319        5.81694       -0.00002
C         -1.71250        5.57784        0.00047
C         -1.19274        4.25259        0.00040
C          0.20964        4.20819        0.00015
S         -1.93292        2.66589        0.00026
C         -0.33632        1.93205       -0.00021
C          0.68348        2.88447       -0.00024
C          0.26095        0.63610       -0.00018
C          1.75007        0.88784       -0.00026
N          1.93292        2.26875       -0.00034
C          3.23055        2.91355       -0.00035
O          2.65402        0.06226       -0.00028
H          3.36215        3.53469        0.89287
H          3.36195        3.53488       -0.89345
H          3.98188        2.12174       -0.00047
C         -0.26095       -0.63610       -0.00018
C         -1.75007       -0.88784       -0.00026
N         -1.93292       -2.26875       -0.00034
C         -0.68348       -2.88447       -0.00024
C          0.33632       -1.93205       -0.00021
C         -0.20964       -4.20819        0.00015
C          1.19274       -4.25259        0.00040
S          1.93292       -2.66589        0.00026
C         -3.23055       -2.91355       -0.00035
H         -3.36215       -3.53469        0.89287
H         -3.36195       -3.53488       -0.89345
H         -3.98188       -2.12174       -0.00047
O         -2.65402       -0.06226       -0.00028
H         -2.76701        5.82872        0.00070
H          2.76701       -5.82872        0.00070
C          1.71250       -5.57784        0.00047
S         -0.89319       -5.81694       -0.00002
C          0.71483       -6.51314        0.00031
H          0.81983       -7.58998        0.00044
H         -0.81983        7.58998        0.00044
