85
Y6-charge.log	Energy: -3023711.5725845
C         -1.41715       -3.61582       -0.15581
C         -0.71571       -4.86367       -0.10687
C          0.71575       -4.86367        0.10666
C          1.41718       -3.61583        0.15576
C          0.71550       -2.38206        0.02485
C         -0.71548       -2.38206       -0.02474
N         -1.25007       -6.07597       -0.18663
S          0.00003       -7.15062       -0.00032
N          1.25010       -6.07598        0.18633
C          2.78617       -3.29590        0.22300
C          2.90328       -1.90671        0.09804
N          1.64377       -1.34410       -0.03467
N         -1.64375       -1.34411        0.03490
C         -2.90326       -1.90671       -0.09790
C         -2.78615       -3.29589       -0.22299
C          1.45577        0.00136       -0.57247
C         -1.45578        0.00124        0.57299
F        -11.53503        6.20012        0.32481
F         -9.00637        7.04469        0.49049
F          9.00625        7.04465       -0.49084
F         11.53492        6.20016       -0.32503
C        -10.87921        3.94020        0.14460
C        -10.55897        5.28592        0.27710
S          4.32446       -4.11184        0.36094
C          5.13492       -2.53885        0.23748
C          4.24090       -1.46061        0.10018
C         -4.24087       -1.46060       -0.10009
C         -5.13489       -2.53883       -0.23757
S         -4.32443       -4.11181       -0.36109
C          6.48400       -2.17036        0.26112
C          6.64019       -0.76563        0.13526
S          5.06260        0.06269       -0.00054
S         -5.06257        0.06269        0.00078
C         -6.64016       -0.76560       -0.13535
C         -6.48397       -2.17032       -0.26130
C          7.92495       -0.17481        0.12704
C         -7.92491       -0.17478       -0.12717
C         -7.61611       -3.15254       -0.40127
C          7.61615       -3.15261        0.40086
C         -9.23230        5.73195        0.36420
C         -8.18105        4.82870        0.31990
C          8.18098        4.82865       -0.32017
C          9.23221        5.73193       -0.36448
C         10.55888        5.28594       -0.27728
C         10.87915        3.94024       -0.14469
C          8.39781        1.12149        0.02331
C         -8.39780        1.12151       -0.02333
C          9.80353        1.53685        0.03387
C          9.82585        3.01807       -0.09885
C          8.50288        3.48393       -0.18755
C          7.56994        2.33813       -0.11666
C         -7.56996        2.33818        0.11652
C         -8.50292        3.48396        0.18737
C         -9.82588        3.01805        0.09879
C         -9.80353        1.53682       -0.03379
C         10.93660        0.74779        0.14236
O          6.34664        2.41548       -0.16645
O         -6.34666        2.41558        0.16620
C        -10.93658        0.74769       -0.14197
C         10.91656       -0.67461        0.26828
C         12.26373        1.27730        0.13942
C        -10.91649       -0.67474       -0.26752
C        -12.26374        1.27714       -0.13896
N         10.93926       -1.83554        0.37229
N         13.35958        1.67288        0.14080
N        -13.35961        1.67266       -0.14023
N        -10.93915       -1.83569       -0.37131
H         -8.22119       -2.95281       -1.29226
H         -7.23339       -4.17369       -0.48110
H         -8.29551       -3.11754        0.45724
H          8.29521       -3.11780       -0.45794
H          8.22160       -2.95274        1.29156
H          7.23341       -4.17373        0.48102
H         -1.34529        0.75053       -0.21663
H         -2.32775        0.26032        1.17821
H         11.92412        3.66798       -0.08303
H         -0.57936        0.01986        1.22192
H          1.34524        0.75047        0.21731
H          7.15100        5.16262       -0.38654
H         -7.15108        5.16270        0.38619
H          2.32775        0.26060       -1.17761
H          0.57936        0.02009       -1.22141
H        -11.92417        3.66792        0.08297
H          8.69184       -0.93285        0.22642
H         -8.69180       -0.93281       -0.22665
